<?xml version="1.0" encoding="UTF-8"?>

<!-- generated on 2023-03-24 15:31:33 by Eclipse SUMO sumo Version 1.16.0
<configuration xmlns:xsi="http://www.w3.org/2001/XMLSchema-instance" xsi:noNamespaceSchemaLocation="http://sumo.dlr.de/xsd/sumoConfiguration.xsd">

    <input>
        <net-file value="data/cross.net.xml"/>
        <route-files value="data/cross.rou.xml"/>
    </input>

    <output>
        <tripinfo-output value="tripinfo.xml"/>
    </output>

    <traci_server>
        <remote-port value="34717"/>
    </traci_server>

</configuration>
-->

<tripinfos xmlns:xsi="http://www.w3.org/2001/XMLSchema-instance" xsi:noNamespaceSchemaLocation="http://sumo.dlr.de/xsd/tripinfo_file.xsd">
    <tripinfo id="up_2" depart="8.00" departLane="B0B1_0" departPos="7.10" departSpeed="0.00" departDelay="0.00" arrival="48.00" arrivalLane="B1B2_0" arrivalPos="192.80" arrivalSpeed="13.93" duration="40.00" routeLength="392.90" waitingTime="0.00" waitingCount="0" stopTime="0.00" timeLoss="11.37" rerouteNo="0" devices="tripinfo_up_2" vType="typeNS" speedFactor="1.01" vaporized=""/>
    <tripinfo id="right_4" depart="16.00" departLane="A1B1_0" departPos="5.10" departSpeed="0.00" departDelay="0.00" arrival="61.00" arrivalLane="B1C1_0" arrivalPos="192.80" arrivalSpeed="14.25" duration="45.00" routeLength="394.90" waitingTime="0.00" waitingCount="0" stopTime="0.00" timeLoss="16.59" rerouteNo="0" devices="tripinfo_right_4" vType="typeWE" speedFactor="1.03" vaporized=""/>
    <tripinfo id="right_5" depart="21.00" departLane="A1B1_0" departPos="5.10" departSpeed="0.00" departDelay="4.00" arrival="65.00" arrivalLane="B1C1_0" arrivalPos="192.80" arrivalSpeed="11.38" duration="44.00" routeLength="394.90" waitingTime="0.00" waitingCount="0" stopTime="0.00" timeLoss="9.38" rerouteNo="0" devices="tripinfo_right_5" vType="typeWE" speedFactor="0.83" vaporized=""/>
    <tripinfo id="left_0" depart="7.00" departLane="C1B1_0" departPos="5.10" departSpeed="0.00" departDelay="0.00" arrival="71.00" arrivalLane="B1A1_0" arrivalPos="192.80" arrivalSpeed="14.64" duration="64.00" routeLength="394.90" waitingTime="10.00" waitingCount="2" stopTime="0.00" timeLoss="36.42" rerouteNo="0" devices="tripinfo_left_0" vType="typeWE" speedFactor="1.06" vaporized=""/>
    <tripinfo id="left_1" depart="12.00" departLane="C1B1_0" departPos="5.10" departSpeed="0.00" departDelay="4.00" arrival="73.00" arrivalLane="B1A1_0" arrivalPos="192.80" arrivalSpeed="12.72" duration="61.00" routeLength="394.90" waitingTime="4.00" waitingCount="2" stopTime="0.00" timeLoss="30.61" rerouteNo="0" devices="tripinfo_left_1" vType="typeWE" speedFactor="0.94" vaporized=""/>
    <tripinfo id="left_3" depart="17.00" departLane="C1B1_0" departPos="5.10" departSpeed="0.00" departDelay="6.00" arrival="83.00" arrivalLane="B1A1_0" arrivalPos="192.80" arrivalSpeed="14.94" duration="66.00" routeLength="394.90" waitingTime="3.00" waitingCount="2" stopTime="0.00" timeLoss="39.47" rerouteNo="0" devices="tripinfo_left_3" vType="typeWE" speedFactor="1.08" vaporized=""/>
    <tripinfo id="left_6" depart="22.00" departLane="C1B1_0" departPos="5.10" departSpeed="0.00" departDelay="1.00" arrival="94.00" arrivalLane="B1A1_0" arrivalPos="192.80" arrivalSpeed="14.52" duration="72.00" routeLength="394.90" waitingTime="3.00" waitingCount="2" stopTime="0.00" timeLoss="44.13" rerouteNo="0" devices="tripinfo_left_6" vType="typeWE" speedFactor="1.05" vaporized=""/>
</tripinfos>
